BEGIN_CFG
 Size
    2
 Supercell
         3.230038      0.000000      0.000000
        -1.615019      2.797295      0.000000
         0.000000      0.000000      5.166529
 AtomData:  id type       cartes_x      cartes_y      cartes_z           fx          fy          fz
             1    0       1.615020      0.932430      3.874900     0.000000    0.000000    0.000000
             2    0       0.000000      1.864860      1.291630     0.000000    0.000000    0.000000
 Energy
        -17.040365930000
 PlusStress:  xx          yy          zz          yz          xz          xy
        -0.00797    -0.00797     0.01086     0.00000     0.00000     0.00000
 Feature   EFS_by	      VASP
END_CFG

BEGIN_CFG
 Size
    3
 Supercell
         3.395134      0.000000      0.000000
        -1.697567      2.940272      0.000000
        -1.697567      0.980091      2.772115
 AtomData:  id type       cartes_x      cartes_y      cartes_z           fx          fy          fz
             1    0       0.000000      0.000000      0.000000     0.000000    0.000000    0.000000
             2    1      -1.697570      2.940276      2.079086     0.000000    0.000000    0.000000
             3    1       1.697568      0.980093      0.693031     0.000000    0.000000    0.000000
 Energy
        -16.974383660000
 PlusStress:  xx          yy          zz          yz          xz          xy
        -0.00351    -0.00351    -0.00351    -0.00000    -0.00000    -0.00000
 Feature   EFS_by	      VASP
END_CFG

BEGIN_CFG
 Size
    3
 Supercell
         3.330956      0.000000      0.000000
        -0.412073      3.305369      0.000000
        -1.459441     -1.652685      2.496785
 AtomData:  id type       cartes_x      cartes_y      cartes_z           fx          fy          fz
             1    0       0.000000      0.000000      0.000000     0.000000    0.000000    0.000000
             2    1       1.665476      0.000001      1.248397     0.000000    0.000000    0.000000
             3    1      -0.206034      1.652679      1.248396     0.000000    0.000000    0.000000
 Energy
        -17.000908640000
 PlusStress:  xx          yy          zz          yz          xz          xy
        -0.01268    -0.01517    -0.00390     0.00000    -0.00000    -0.00996
 Feature   EFS_by	      VASP
END_CFG

BEGIN_CFG
 Size
    4
 Supercell
         3.235811      0.000000      0.000000
         0.000000      3.235811      0.000000
         0.000000      0.000000      4.995633
 AtomData:  id type       cartes_x      cartes_y      cartes_z           fx          fy          fz
             1    0       1.617910      0.000000      2.497820     0.000000    0.000000    0.000000
             2    0       0.000000      1.617910      0.000000     0.000000    0.000000    0.000000
             3    1       0.000000      0.000000      1.248910     0.000000    0.000000    0.000000
             4    1       0.000000      0.000000      3.746730     0.000000    0.000000    0.000000
 Energy
        -25.522235180000
 PlusStress:  xx          yy          zz          yz          xz          xy
        -0.01995    -0.01995     0.01473     0.00000     0.00000     0.00000
 Feature   EFS_by	      VASP
END_CFG

BEGIN_CFG
 Size
    2
 Supercell
         3.230038      0.000000      0.000000
         0.943668      2.715538      0.000000
         0.000000      0.000000      5.166529
 AtomData:  id type       cartes_x      cartes_y      cartes_z           fx          fy          fz
             1    0       1.391240      0.905180      3.874900    -0.401404   -0.252984    0.000000
             2    0       2.782470      1.810360      1.291630     0.401404    0.252984    0.000000
 Energy
        -16.733083380000
 PlusStress:  xx          yy          zz          yz          xz          xy
         0.24058     1.68044     0.10207     0.00000     0.00000     1.60677
 Feature   EFS_by	VASP
END_CFG

BEGIN_CFG
 Size
    3
 Supercell
         3.451256      0.000000      0.000000
        -1.614297      3.002838      0.000000
         0.000000     -1.919340      2.800548
 AtomData:  id type       cartes_x      cartes_y      cartes_z           fx          fy          fz
             1    0       0.000000      0.000000      0.000000     0.000000    0.000000    0.000000
             2    1       1.781290      1.021584      0.700133    -0.127834   -0.021228   -0.014548
             3    1       0.055670      0.061910      2.100408     0.127834    0.021228    0.014548
 Energy
        -16.957443580000
 PlusStress:  xx          yy          zz          yz          xz          xy
        -1.08300    -0.98799    -1.03532     0.06117    -0.04583    -0.06687
 Feature   EFS_by	VASP
END_CFG

BEGIN_CFG
 Size
    3
 Supercell
         2.998633      0.000000      0.000000
        -1.495932      3.031426      0.000000
        -0.824360      1.344188      2.935738
 AtomData:  id type       cartes_x      cartes_y      cartes_z           fx          fy          fz
             1    0       0.000000      0.000000      0.000000     0.000000    0.000000    0.000000
             2    1       1.668900      1.093900      0.733930    -0.807648    0.715628    0.595570
             3    1      -0.990560      3.281710      2.201800     0.807648   -0.715628   -0.595570
 Energy
        -16.501139380000
 PlusStress:  xx          yy          zz          yz          xz          xy
         4.31697     0.96110    -0.99985     0.46880    -2.88952    -2.39991
 Feature   EFS_by	VASP
END_CFG

BEGIN_CFG
 Size
    4
 Supercell
         3.235811      0.000000      0.000000
         0.000000      3.235811      0.000000
        -1.198952      0.000000      4.849626
 AtomData:  id type       cartes_x      cartes_y      cartes_z           fx          fy          fz
             1    0       1.018430      0.000000      2.424810     0.000000    0.000000    0.000000
             2    0       0.000000      1.617910      0.000000     0.000000    0.000000    0.000000
             3    1       2.936071      0.000000      1.212410    -1.679814    0.000000   -1.123664
             4    1      -0.899210      0.000000      3.637220     1.679814    0.000000    1.123664
 Energy
        -24.640778910000
 PlusStress:  xx          yy          zz          yz          xz          xy
         3.15504    -0.30685     5.02484     0.00000     7.00701     0.00000
 Feature   EFS_by	VASP
END_CFG

BEGIN_CFG
 Size
    3
 Supercell
         3.021772      0.000000      0.000000
         1.378743      2.971093      0.000000
         1.114458      1.153887      2.992234
 AtomData:  id type       cartes_x      cartes_y      cartes_z           fx          fy          fz
             1    0       0.000000      0.000000      0.000000     0.000000    0.000000    0.000000
             2    1       4.136230      3.093730      2.244180    -0.738950   -0.652634   -0.618054
             3    1       1.378740      1.031240      0.748060     0.738950    0.652634    0.618054
 Energy
        -16.638164410000
 PlusStress:  xx          yy          zz          yz          xz          xy
         4.35444     1.09207    -1.05482     0.66744     1.95707     2.14491
 Feature   EFS_by	VASP
END_CFG

BEGIN_CFG
 Size
    4
 Supercell
         3.393747      0.000000      0.000000
         0.000000      3.235811      0.000000
         0.000000      0.000000      4.995633
 AtomData:  id type       cartes_x      cartes_y      cartes_z           fx          fy          fz
             1    0       1.696870      0.000000      2.497820     0.000000    0.000000    0.000000
             2    0       0.000000      1.617910      0.000000     0.000000    0.000000    0.000000
             3    1       0.000000      0.000000      1.248910     0.000000    0.000000    0.223876
             4    1       0.000000      0.000000      3.746730     0.000000    0.000000   -0.223876
 Energy
        -25.455655920000
 PlusStress:  xx          yy          zz          yz          xz          xy
        -3.06240    -0.49622    -1.32455     0.00000     0.00000     0.00000
 Feature   EFS_by	VASP
END_CFG

BEGIN_CFG
 Size
    3
 Supercell
         3.280011      0.000000      0.000000
        -1.522862      2.905058      0.000000
         1.522862     -0.921116      2.755160
 AtomData:  id type       cartes_x      cartes_y      cartes_z           fx          fy          fz
             1    0       0.000000      0.000000      0.000000     0.000000    0.000000    0.000000
             2    1       3.221440      0.035430      2.066370    -0.285380    0.172615   -0.124297
             3    1       0.058570      1.948510      0.688790     0.285380   -0.172615    0.124297
 Energy
        -16.924764790000
 PlusStress:  xx          yy          zz          yz          xz          xy
         1.63809     1.25350     1.14667    -0.15977     0.26415    -0.36683
 Feature   EFS_by	VASP
END_CFG

BEGIN_CFG
 Size
    3
 Supercell
         3.328987      0.000000      0.000000
         0.182465      3.085158      0.000000
        -1.275874      1.596162      2.598352
 AtomData:  id type       cartes_x      cartes_y      cartes_z           fx          fy          fz
             1    0       0.000000      0.000000      0.000000     0.000000    0.000000    0.000000
             2    1       1.995650      3.111950      1.299180    -0.361651    0.148044   -0.184668
             3    1       0.239930      1.569370      1.299180     0.361651   -0.148044    0.184668
 Energy
        -16.840588530000
 PlusStress:  xx          yy          zz          yz          xz          xy
         0.20461     2.43880     0.56400    -0.52309    -1.50052    -0.11072
 Feature   EFS_by	VASP
END_CFG

BEGIN_CFG
 Size
    2
 Supercell
         3.230038      0.000000      0.000000
        -1.615019      2.797295      0.000000
         0.000000      0.000000      4.901400
 AtomData:  id type       cartes_x      cartes_y      cartes_z           fx          fy          fz
             1    0       0.000002      1.864860      3.676050     0.000000    0.000000    0.000000
             2    0       1.615020      0.932430      1.225350     0.000000    0.000000    0.000000
 Energy
        -16.964072110000
 PlusStress:  xx          yy          zz          yz          xz          xy
         1.07009     1.07009     2.72574     0.00000     0.00000     0.00000
 Feature   EFS_by	VASP
END_CFG

BEGIN_CFG
 Size
    3
 Supercell
         3.332924      0.000000      0.000000
        -1.005909      3.409866      0.000000
        -1.460543     -1.856953      2.348145
 AtomData:  id type       cartes_x      cartes_y      cartes_z           fx          fy          fz
             1    0       0.000000      0.000000      0.000000     0.000000    0.000000    0.000000
             2    1       1.517940     -0.076010      1.174070     0.786073   -0.167005    0.487076
             3    1      -0.651470      1.628920      1.174070    -0.786073    0.167005   -0.487076
 Energy
        -16.610482030000
 PlusStress:  xx          yy          zz          yz          xz          xy
         1.42496    -0.54427     2.16544     1.33887     3.11007     1.54823
 Feature   EFS_by	VASP
END_CFG

BEGIN_CFG
 Size
    3
 Supercell
         3.298588      0.000000      0.000000
        -0.481171      3.263305      0.000000
        -1.325838     -1.535667      2.422733
 AtomData:  id type       cartes_x      cartes_y      cartes_z           fx          fy          fz
             1    0       0.000000      0.000000      0.000000     0.000000    0.000000    0.000000
             2    1       1.690730      0.047990      1.211370    -0.208219    0.179768   -0.000000
             3    1      -0.199150      1.679650      1.211370     0.208219   -0.179768    0.000000
 Energy
        -16.938179500000
 PlusStress:  xx          yy          zz          yz          xz          xy
         1.21763     1.22845     1.48170    -0.64375    -0.55579     0.03669
 Feature   EFS_by	VASP
END_CFG

BEGIN_CFG
 Size
    3
 Supercell
         3.329500      0.000000      0.000000
         1.179064      2.980605      0.000000
        -1.151780     -1.106846      2.689083
 AtomData:  id type       cartes_x      cartes_y      cartes_z           fx          fy          fz
             1    0       0.000000      0.000000      0.000000     0.000000    0.000000    0.000000
             2    1       0.263310     -0.084980      2.016810     0.991209    0.541893   -0.221343
             3    1       3.093480      1.958740      0.672270    -0.991209   -0.541893    0.221343
 Energy
        -16.660997920000
 PlusStress:  xx          yy          zz          yz          xz          xy
         2.11322     1.37795     1.69372    -0.73176    -2.09713     3.14637
 Feature   EFS_by	VASP
END_CFG

BEGIN_CFG
 Size
    2
 Supercell
         3.230038      0.000000      0.000000
         1.615019      2.797295      0.000000
        -1.073843     -0.619983      5.015526
 AtomData:  id type       cartes_x      cartes_y      cartes_z           fx          fy          fz
             1    0       2.424660      1.399880      3.761640     0.224810    0.129794    0.180981
             2    0       1.346560      0.777440      1.253880    -0.224810   -0.129794   -0.180981
 Energy
        -16.828864520000
 PlusStress:  xx          yy          zz          yz          xz          xy
         0.27225     0.00474     1.37953     0.57251     0.99161     0.23167
 Feature   EFS_by	VASP
END_CFG

BEGIN_CFG
 Size
    4
 Supercell
         3.235811      0.000000      0.000000
         0.000000      3.235811      0.000000
         0.000000      0.000000      5.239465
 AtomData:  id type       cartes_x      cartes_y      cartes_z           fx          fy          fz
             1    0       1.617910      0.000000      2.619730     0.000000    0.000000    0.000000
             2    0       0.000000      1.617910      0.000000     0.000000    0.000000    0.000000
             3    1       0.000000      0.000000      1.309870     0.000000    0.000000    0.000000
             4    1       0.000000      0.000000      3.929600     0.000000    0.000000    0.000000
 Energy
        -25.467594690000
 PlusStress:  xx          yy          zz          yz          xz          xy
        -1.42334    -1.42334    -2.74151     0.00000     0.00000     0.00000
 Feature   EFS_by	VASP
END_CFG

BEGIN_CFG
 Size
    4
 Supercell
         3.235811      0.000000      0.000000
        -0.776595      3.141237      0.000000
         0.000000      0.000000      4.995633
 AtomData:  id type       cartes_x      cartes_y      cartes_z           fx          fy          fz
             1    0       1.617910      0.000000      2.497820     0.000000    0.000000    0.000000
             2    0       2.847511      1.570620      0.000000     0.000000    0.000000    0.000000
             3    1       0.000000      0.000000      1.248910     0.000000    0.000000    0.000000
             4    1       0.000000      0.000000      3.746730     0.000000    0.000000    0.000000
 Energy
        -25.498725170000
 PlusStress:  xx          yy          zz          yz          xz          xy
         0.16797     0.31027     0.67574     0.00000     0.00000     0.28779
 Feature   EFS_by	VASP
END_CFG

BEGIN_CFG
 Size
    3
 Supercell
         3.395134      0.000000      0.000000
         1.121394      2.994209      0.000000
         0.576173     -1.705112      2.642618
 AtomData:  id type       cartes_x      cartes_y      cartes_z           fx          fy          fz
             1    0       0.000000      0.000000      0.000000     0.000000    0.000000    0.000000
             2    1       3.539180      0.218270      1.981960    -0.343042   -0.013612    0.227003
             3    1       1.553520      1.070830      0.660650     0.343042    0.013612   -0.227003
 Energy
        -16.848980390000
 PlusStress:  xx          yy          zz          yz          xz          xy
        -0.03094     0.41896     1.89561    -0.21803     0.60109     1.67320
 Feature   EFS_by	VASP
END_CFG

BEGIN_CFG
 Size
    3
 Supercell
         3.331920      0.000000      0.000000
        -0.701606      2.943876      0.000000
        -1.462174     -1.252977      2.720656
 AtomData:  id type       cartes_x      cartes_y      cartes_z           fx          fy          fz
             1    0       0.000000      0.000000      0.000000     0.000000    0.000000    0.000000
             2    1       1.592450      0.109480      1.360330     0.001901    0.458567   -0.553392
             3    1      -0.424310      1.581420      1.360330    -0.001901   -0.458567    0.553392
 Energy
        -16.656862700000
 PlusStress:  xx          yy          zz          yz          xz          xy
        -0.85041     3.46307    -0.52718    -2.11243     0.94430     0.43260
 Feature   EFS_by	VASP
END_CFG

BEGIN_CFG
 Size
    3
 Supercell
         3.462687      0.000000      0.000000
        -0.497281      3.314263      0.000000
        -1.403396     -1.677575      2.512269
 AtomData:  id type       cartes_x      cartes_y      cartes_z           fx          fy          fz
             1    0       0.000000      0.000000      0.000000     0.000000    0.000000    0.000000
             2    1       1.771000     -0.010220      1.256130    -0.080055   -0.047872   -0.098657
             3    1      -0.208990      1.646910      1.256130     0.080055    0.047872    0.098657
 Energy
        -16.967082210000
 PlusStress:  xx          yy          zz          yz          xz          xy
        -1.37272    -0.67474    -1.09451     0.16113    -0.39780     0.16704
 Feature   EFS_by	VASP
END_CFG

BEGIN_CFG
 Size
    4
 Supercell
         3.069760      0.000000      0.000000
         0.000000      3.235811      0.000000
         0.000000      0.000000      4.995633
 AtomData:  id type       cartes_x      cartes_y      cartes_z           fx          fy          fz
             1    0       1.534880      0.000000      2.497820     0.000000    0.000000    0.000000
             2    0       0.000000      1.617910      0.000000     0.000000    0.000000    0.000000
             3    1       0.000000      0.000000      1.248910     0.000000    0.000000   -0.339918
             4    1       0.000000      0.000000      3.746730     0.000000    0.000000    0.339918
 Energy
        -25.415063880000
 PlusStress:  xx          yy          zz          yz          xz          xy
         3.73568     0.51545     1.90918     0.00000     0.00000     0.00000
 Feature   EFS_by	VASP
END_CFG

BEGIN_CFG
 Size
    2
 Supercell
         3.230038      0.000000      0.000000
        -1.615019      2.933827      0.000000
         0.000000      0.000000      5.166529
 AtomData:  id type       cartes_x      cartes_y      cartes_z           fx          fy          fz
             1    0       1.615020      0.977940      3.874900     0.000000   -0.076631    0.000000
             2    0       0.000000      1.955880      1.291630     0.000000    0.076631    0.000000
 Energy
        -16.994168070000
 PlusStress:  xx          yy          zz          yz          xz          xy
        -0.74321    -2.00628    -0.92267     0.00000     0.00000     0.00000
 Feature   EFS_by	VASP
END_CFG

BEGIN_CFG
 Size
    3
 Supercell
         3.395134      0.000000      0.000000
        -1.121394      2.767881      0.000000
        -1.697567     -0.687761      2.858704
 AtomData:  id type       cartes_x      cartes_y      cartes_z           fx          fy          fz
             1    0       0.000000      0.000000      0.000000     0.000000    0.000000    0.000000
             2    1       0.432130      1.903968      0.714679     0.806435   -0.230601    0.423402
             3    1       0.144040      0.176148      2.144029    -0.806435    0.230601   -0.423402
 Energy
        -16.717460980000
 PlusStress:  xx          yy          zz          yz          xz          xy
         1.62660     2.25975    -0.69594    -0.86680     0.90236    -2.78976
 Feature   EFS_by	VASP
END_CFG

BEGIN_CFG
 Size
    2
 Supercell
         3.106551      0.000000      0.000000
         1.427334      2.759234      0.000000
         0.000000      0.000000      5.166529
 AtomData:  id type       cartes_x      cartes_y      cartes_z           fx          fy          fz
             1    0       3.022590      1.839490      3.874900     0.088577    0.053906    0.000000
             2    0       1.511290      0.919740      1.291630    -0.088577   -0.053906    0.000000
 Energy
        -16.971310450000
 PlusStress:  xx          yy          zz          yz          xz          xy
         1.98512     1.30861     1.05256     0.00000     0.00000     0.65390
 Feature   EFS_by	VASP
END_CFG

BEGIN_CFG
 Size
    2
 Supercell
         3.230038      0.000000      0.000000
         1.615019      2.797295      0.000000
        -0.619983      1.073843      5.015526
 AtomData:  id type       cartes_x      cartes_y      cartes_z           fx          fy          fz
             1    0       2.765050      2.670250      3.761640    -0.286515   -0.165419    0.000000
             2    0       1.460020      1.200890      1.253880     0.286515    0.165419    0.000000
 Energy
        -16.824448260000
 PlusStress:  xx          yy          zz          yz          xz          xy
        -0.00751     0.23769     1.41112    -1.07558     0.62098    -0.21235
 Feature   EFS_by	VASP
END_CFG

BEGIN_CFG
 Size
    4
 Supercell
         3.235811      0.000000      0.000000
         0.000000      3.235811      0.000000
         0.000000      0.000000      4.739274
 AtomData:  id type       cartes_x      cartes_y      cartes_z           fx          fy          fz
             1    0       1.617910      0.000000      2.369640     0.000000    0.000000    0.000000
             2    0       0.000000      1.617910      0.000000     0.000000    0.000000    0.000000
             3    1       0.000000      0.000000      1.184820     0.000000    0.000000    0.000000
             4    1       0.000000      0.000000      3.554460     0.000000    0.000000    0.000000
 Energy
        -25.428834780000
 PlusStress:  xx          yy          zz          yz          xz          xy
         1.75217     1.75217     3.14833     0.00000     0.00000     0.00000
 Feature   EFS_by	VASP
END_CFG

BEGIN_CFG
 Size
    3
 Supercell
         3.395134      0.000000      0.000000
        -1.364913      2.721238      0.000000
         0.665308      1.621595      2.907702
 AtomData:  id type       cartes_x      cartes_y      cartes_z           fx          fy          fz
             1    0       0.000000      0.000000      0.000000     0.000000    0.000000    0.000000
             2    1       2.362870      2.576820      2.180780    -0.188345   -0.556067   -0.419622
             3    1       0.332650      1.766020      0.726930     0.188345    0.556067    0.419622
 Energy
        -16.788535740000
 PlusStress:  xx          yy          zz          yz          xz          xy
         0.01131     3.68252    -0.96908     1.18979    -0.46009    -0.34505
 Feature   EFS_by	VASP
END_CFG

BEGIN_CFG
 Size
    2
 Supercell
         3.224578      0.000000      0.000000
         1.148010      2.791676      0.000000
         0.000000      0.000000      5.203383
 AtomData:  id type       cartes_x      cartes_y      cartes_z           fx          fy          fz
             1    0       1.331110      0.910730      3.902540     0.009488   -0.059236    0.000000
             2    0       3.041480      1.880950      1.300850    -0.009488    0.059236    0.000000
 Energy
        -16.919431930000
 PlusStress:  xx          yy          zz          yz          xz          xy
        -0.48983     0.54226    -0.96067     0.00000     0.00000     0.98791
 Feature   EFS_by	VASP
END_CFG

BEGIN_CFG
 Size
    2
 Supercell
         3.189058      0.000000      0.000000
        -1.529034      2.791842      0.000000
         0.812529     -0.346912      5.175872
 AtomData:  id type       cartes_x      cartes_y      cartes_z           fx          fy          fz
             1    0       0.612620      1.628220      3.908550    -0.032007    0.067722   -0.169020
             2    0       1.859930      0.816710      1.267320     0.032007   -0.067722    0.169020
 Energy
        -16.930277930000
 PlusStress:  xx          yy          zz          yz          xz          xy
         0.27887    -0.04256     0.24664     0.36759    -0.89352    -0.23951
 Feature   EFS_by	VASP
END_CFG

BEGIN_CFG
 Size
    4
 Supercell
         3.240822      0.000000      0.000000
         0.000000      3.241990      0.000000
        -1.019903      0.000000      4.915965
 AtomData:  id type       cartes_x      cartes_y      cartes_z           fx          fy          fz
             1    0       1.110460      0.000000      2.457980     0.000000    0.000000    0.000000
             2    0       0.000000      1.621000      0.000000     0.000000    0.000000    0.000000
             3    1       2.932440      0.000000      1.193290    -0.832544    0.000000   -0.270515
             4    1      -0.711520      0.000000      3.722670     0.832544    0.000000    0.270515
 Energy
        -25.084277110000
 PlusStress:  xx          yy          zz          yz          xz          xy
         1.06416    -0.25837     2.45287     0.00000     4.46292     0.00000
 Feature   EFS_by	VASP
END_CFG

BEGIN_CFG
 Size
    4
 Supercell
         3.161129      0.000000      0.000000
        -0.796825      3.059053      0.000000
         0.000000      0.000000      5.194589
 AtomData:  id type       cartes_x      cartes_y      cartes_z           fx          fy          fz
             1    0       1.580560      0.000000      2.597290     0.000000    0.000000    0.000000
             2    0      -0.398410      1.529530      0.000000     0.000000    0.000000    0.000000
             3    1       0.000000      0.000000      1.298650     0.000000    0.000000    0.000000
             4    1       0.000000      0.000000      3.895940     0.000000    0.000000    0.000000
 Energy
        -25.471387590000
 PlusStress:  xx          yy          zz          yz          xz          xy
         0.96596     1.04799    -0.42631     0.00000     0.00000     0.15747
 Feature   EFS_by	VASP
END_CFG

BEGIN_CFG
 Size
    3
 Supercell
         3.275168      0.000000      0.000000
        -1.613949      2.849894      0.000000
         1.404359     -0.818609      2.935364
 AtomData:  id type       cartes_x      cartes_y      cartes_z           fx          fy          fz
             1    0       3.059128      2.027630      2.924835    -0.020124   -0.032978    0.000418
             2    1       3.059470      0.106516      2.133251     0.006657    0.055839   -0.095036
             3    1      -0.011639      1.909159      0.781046     0.013466   -0.022860    0.094618
 Energy
        -16.950490760000
 PlusStress:  xx          yy          zz          yz          xz          xy
         0.88218     0.51726    -0.59655    -0.27106     0.41888    -0.24079
 Feature   EFS_by	VASP
END_CFG

BEGIN_CFG
 Size
    2
 Supercell
         3.149774      0.000000      0.000000
         1.566495      2.804079      0.000000
        -0.797815      0.150702      5.222102
 AtomData:  id type       cartes_x      cartes_y      cartes_z           fx          fy          fz
             1    0       0.983250      0.967990      3.921780     0.023966   -0.008738   -0.037106
             2    0       2.935210      1.986790      1.300320    -0.023966    0.008738    0.037106
 Energy
        -16.948761810000
 PlusStress:  xx          yy          zz          yz          xz          xy
         0.49495    -0.17280    -0.03725    -0.19637     0.80077     0.00075
 Feature   EFS_by	VASP
END_CFG

BEGIN_CFG
 Size
    2
 Supercell
         3.270164      0.000000      0.000000
         1.515442      2.897828      0.000000
         0.000000      0.000000      5.166529
 AtomData:  id type       cartes_x      cartes_y      cartes_z           fx          fy          fz
             1    0       3.190400      1.931890      3.874900     0.082641    0.050042    0.000000
             2    0       1.595200      0.965940      1.291630    -0.082641   -0.050042    0.000000
 Energy
        -16.994970750000
 PlusStress:  xx          yy          zz          yz          xz          xy
        -1.09862    -1.64739    -0.91251     0.00000     0.00000     0.52468
 Feature   EFS_by	VASP
END_CFG

BEGIN_CFG
 Size
    2
 Supercell
         3.237743      0.000000      0.000000
         0.983722      2.728472      0.000000
         0.000000      0.000000      5.166669
 AtomData:  id type       cartes_x      cartes_y      cartes_z           fx          fy          fz
             1    0       1.387600      0.897460      3.875000    -0.327315   -0.201852    0.000000
             2    0       2.833870      1.831010      1.291670     0.327315    0.201852    0.000000
 Energy
        -16.782907370000
 PlusStress:  xx          yy          zz          yz          xz          xy
         0.01848     1.63889    -0.22714     0.00000     0.00000     1.53976
 Feature   EFS_by	VASP
END_CFG

BEGIN_CFG
 Size
    3
 Supercell
         3.330955      0.000000      0.000000
        -0.411318      3.188652      0.000000
        -1.459439     -1.713622      2.455361
 AtomData:  id type       cartes_x      cartes_y      cartes_z           fx          fy          fz
             1    0       0.000000      0.000000      0.000000     0.000000    0.000000    0.000000
             2    1       1.665670     -0.059650      1.227680     0.045549   -0.274928   -0.226593
             3    1      -0.205470      1.534680      1.227680    -0.045549    0.274928    0.226593
 Energy
        -16.929448720000
 PlusStress:  xx          yy          zz          yz          xz          xy
         0.74102     1.90525     1.39507     0.91263    -0.09883    -0.07803
 Feature   EFS_by	VASP
END_CFG

BEGIN_CFG
 Size
    3
 Supercell
         3.330976      0.000000      0.000000
        -0.691761      2.960628      0.000000
        -1.453385     -1.277853      2.714591